title                   = First stage of peptide–bilayer system NVT equilibration 
; Run parameters
integrator              = md        ; leap-frog integrator
nsteps                  = 500000    ; 2 * 500000 = 1000 ps (1 ns)
dt                      = 0.002     ; 2 fs
define                  = -DPOSRES -DPOSRES_FC=4000.0 -DPOSRES_FC_LIPID=1000.0 -DDIHRES -DDIHRES_FC=1000.0  

; Output control
nstenergy               = 500       ; save energies every 1.0 ps
nstlog                  = 500       ; update log file every 1.0 ps
nstxout-compressed      = 500       ; save coordinates every 1.0 ps 

; Bond parameters
continuation            = no        ; first dynamics run
constraint_algorithm    = lincs     ; holonomic constraints 
constraints             = h-bonds   ; bonds involving H are constrained
lincs_iter              = 1         ; accuracy of LINCS
lincs_order             = 4         ; also related to accuracy

; Neighbor searching and vdW
cutoff-scheme           = Verlet
ns_type                 = grid      ; search neighboring grid cells
nstlist                 = 20        ; largely irrelevant with Verlet
rlist                   = 1.4
vdwtype                 = cutoff
vdw-modifier            = force-switch
rvdw-switch             = 1.0
rvdw                    = 1.2       ; short-range van der Waals cutoff (in nm)

; Electrostatics
coulombtype             = PME       ; Particle Mesh Ewald for long-range electrostatics
rcoulomb                = 1.2       ; short-range electrostatic cutoff (in nm)
pme_order               = 4         ; cubic interpolation
fourierspacing          = 0.12      ; grid spacing for FFT

; Temperature coupling
tcoupl                  = V-rescale                    ; modified Berendsen thermostat
tc-grps                 = System
tau_t                   = 0.5                       ; time constant, in ps
ref_t                   = 323                       ; reference temperature for each group, in K

; Pressure coupling is off
pcoupl                  = no        ; no pressure coupling in NVT

; Periodic boundary conditions
pbc                     = xyz       ; 3-D PBC

; Velocity generation
gen_vel                 = yes       ; assign velocities from Maxwell distribution
gen_temp                = 323       ; temperature for Maxwell distribution
gen_seed                = -1        ; generate a random seed
